5318587
  -OEChem-11152510412D

 34 36  0     1  0  0  0  0  0999 V2000
    4.6051   -1.6174    0.0000 O   0  0  0  0  0  0  0  0  0  0  0  0
    2.5836    1.1591    0.0000 O   0  0  0  0  0  0  0  0  0  0  0  0
    6.0938   -2.5865    0.0000 O   0  0  0  0  0  0  0  0  0  0  0  0
    5.2619    0.8544    0.0000 C   0  0  1  0  0  0  0  0  0  0  0  0
    5.2619   -0.1456    0.0000 C   0  0  2  0  0  0  0  0  0  0  0  0
    4.3958   -0.6456    0.0000 C   0  0  2  0  0  0  0  0  0  0  0  0
    4.3958    1.3544    0.0000 C   0  0  0  0  0  0  0  0  0  0  0  0
    3.5298   -0.1456    0.0000 C   0  0  0  0  0  0  0  0  0  0  0  0
    3.5298    0.8544    0.0000 C   0  0  0  0  0  0  0  0  0  0  0  0
    5.9989   -0.8127    0.0000 C   0  0  0  0  0  0  0  0  0  0  0  0
    6.2619    0.8544    0.0000 C   0  0  0  0  0  0  0  0  0  0  0  0
    5.7619    1.7204    0.0000 C   0  0  0  0  0  0  0  0  0  0  0  0
    2.5836   -0.4503    0.0000 C   0  0  0  0  0  0  0  0  0  0  0  0
    5.5938   -1.7204    0.0000 C   0  0  0  0  0  0  0  0  0  0  0  0
    2.0000    0.3544    0.0000 C   0  0  0  0  0  0  0  0  0  0  0  0
    6.9774   -0.6064    0.0000 C   0  0  0  0  0  0  0  0  0  0  0  0
    2.2729   -1.4008    0.0000 C   0  0  0  0  0  0  0  0  0  0  0  0
    5.2619    2.5865    0.0000 C   0  0  0  0  0  0  0  0  0  0  0  0
    6.0388    0.1991    0.0000 H   0  0  0  0  0  0  0  0  0  0  0  0
    3.7088   -1.1461    0.0000 H   0  0  0  0  0  0  0  0  0  0  0  0
    4.7944    1.8294    0.0000 H   0  0  0  0  0  0  0  0  0  0  0  0
    3.9973    1.8294    0.0000 H   0  0  0  0  0  0  0  0  0  0  0  0
    6.2619    0.2344    0.0000 H   0  0  0  0  0  0  0  0  0  0  0  0
    6.8819    0.8544    0.0000 H   0  0  0  0  0  0  0  0  0  0  0  0
    6.2619    1.4744    0.0000 H   0  0  0  0  0  0  0  0  0  0  0  0
    6.3819    1.7204    0.0000 H   0  0  0  0  0  0  0  0  0  0  0  0
    1.3800    0.3544    0.0000 H   0  0  0  0  0  0  0  0  0  0  0  0
    7.3915   -1.0679    0.0000 H   0  0  0  0  0  0  0  0  0  0  0  0
    7.1700   -0.0171    0.0000 H   0  0  0  0  0  0  0  0  0  0  0  0
    1.6836   -1.2082    0.0000 H   0  0  0  0  0  0  0  0  0  0  0  0
    2.0803   -1.9902    0.0000 H   0  0  0  0  0  0  0  0  0  0  0  0
    2.8623   -1.5934    0.0000 H   0  0  0  0  0  0  0  0  0  0  0  0
    5.5719    3.1234    0.0000 H   0  0  0  0  0  0  0  0  0  0  0  0
    4.6419    2.5865    0.0000 H   0  0  0  0  0  0  0  0  0  0  0  0
  1  6  1  0  0  0  0
  1 14  1  0  0  0  0
  2  9  1  0  0  0  0
  2 15  1  0  0  0  0
  3 14  2  0  0  0  0
  4  5  1  0  0  0  0
  4  7  1  0  0  0  0
  4 11  1  1  0  0  0
  4 12  1  0  0  0  0
  5  6  1  0  0  0  0
  5 10  1  0  0  0  0
  5 19  1  6  0  0  0
  6  8  1  0  0  0  0
  6 20  1  6  0  0  0
  7  9  1  0  0  0  0
  7 21  1  0  0  0  0
  7 22  1  0  0  0  0
  8  9  2  0  0  0  0
  8 13  1  0  0  0  0
 10 14  1  0  0  0  0
 10 16  2  0  0  0  0
 11 23  1  0  0  0  0
 11 24  1  0  0  0  0
 11 25  1  0  0  0  0
 12 18  2  0  0  0  0
 12 26  1  0  0  0  0
 13 15  2  0  0  0  0
 13 17  1  0  0  0  0
 15 27  1  0  0  0  0
 16 28  1  0  0  0  0
 16 29  1  0  0  0  0
 17 30  1  0  0  0  0
 17 31  1  0  0  0  0
 17 32  1  0  0  0  0
 18 33  1  0  0  0  0
 18 34  1  0  0  0  0
M  END
> <PUBCHEM_COMPOUND_CID>
5318587

> <PUBCHEM_COMPOUND_CANONICALIZED>
1

> <PUBCHEM_CACTVS_COMPLEXITY>
427

> <PUBCHEM_CACTVS_HBOND_ACCEPTOR>
3

> <PUBCHEM_CACTVS_HBOND_DONOR>
0

> <PUBCHEM_CACTVS_ROTATABLE_BOND>
1

> <PUBCHEM_CACTVS_SUBSKEYS>
AAADceBwMAAAAAAAAAAAAAAAAAAAASJAAAAwAAAAAAAAAEgBgAAAGgAAAAAADxSgmAIiDIAABECIAqjSiAACCAAkIAAIiAEECMgMJzaENRqCGSCl4BEIqYfK7PzPgAAAAAAAAADAAAYQADAAAAAAAAAAAA==

> <PUBCHEM_IUPAC_OPENEYE_NAME>
(3aS,4R,8bR)-4,8-dimethyl-3-methylene-4-vinyl-5,8b-dihydro-3aH-furo[2,3-e]benzofuran-2-one

> <PUBCHEM_IUPAC_CAS_NAME>
(3aS,4R,8bR)-4-ethenyl-4,8-dimethyl-3-methylene-5,8b-dihydro-3aH-furo[2,3-e]benzofuran-2-one

> <PUBCHEM_IUPAC_NAME_MARKUP>
(3<I>a</I><I>S</I>,4<I>R</I>,8<I>b</I><I>R</I>)-4-ethenyl-4,8-dimethyl-3-methylidene-5,8<I>b</I>-dihydro-3<I>a</I><I>H</I>-furo[2,3-e][1]benzofuran-2-one

> <PUBCHEM_IUPAC_NAME>
(3aS,4R,8bR)-4-ethenyl-4,8-dimethyl-3-methylidene-5,8b-dihydro-3aH-furo[2,3-e][1]benzofuran-2-one

> <PUBCHEM_IUPAC_SYSTEMATIC_NAME>
(3aS,4R,8bR)-4-ethenyl-4,8-dimethyl-3-methylidene-5,8b-dihydro-3aH-furo[2,3-e][1]benzofuran-2-one

> <PUBCHEM_IUPAC_TRADITIONAL_NAME>
(3aS,4R,8bR)-4,8-dimethyl-3-methylene-4-vinyl-5,8b-dihydro-3aH-furo[2,3-e]benzofuran-2-one

> <PUBCHEM_IUPAC_INCHI>
InChI=1S/C15H16O3/c1-5-15(4)6-10-11(8(2)7-17-10)13-12(15)9(3)14(16)18-13/h5,7,12-13H,1,3,6H2,2,4H3/t12-,13-,15-/m0/s1

> <PUBCHEM_IUPAC_INCHIKEY>
VXZIFOKTSURLNL-YDHLFZDLSA-N

> <PUBCHEM_XLOGP3_AA>
3

> <PUBCHEM_EXACT_MASS>
244.109944368

> <PUBCHEM_MOLECULAR_FORMULA>
C15H16O3

> <PUBCHEM_MOLECULAR_WEIGHT>
244.28

> <PUBCHEM_SMILES>
CC1=COC2=C1[C@H]3[C@H](C(=C)C(=O)O3)[C@@](C2)(C)C=C

> <PUBCHEM_CONNECTIVITY_SMILES>
CC1=COC2=C1C3C(C(=C)C(=O)O3)C(C2)(C)C=C

> <PUBCHEM_CACTVS_TPSA>
39.4

> <PUBCHEM_MONOISOTOPIC_WEIGHT>
244.109944368

> <PUBCHEM_TOTAL_CHARGE>
0

> <PUBCHEM_HEAVY_ATOM_COUNT>
18

> <PUBCHEM_ATOM_DEF_STEREO_COUNT>
3

> <PUBCHEM_ATOM_UDEF_STEREO_COUNT>
0

> <PUBCHEM_BOND_DEF_STEREO_COUNT>
0

> <PUBCHEM_BOND_UDEF_STEREO_COUNT>
0

> <PUBCHEM_ISOTOPIC_ATOM_COUNT>
0

> <PUBCHEM_COMPONENT_COUNT>
1

> <PUBCHEM_CACTVS_TAUTO_COUNT>
-1

> <PUBCHEM_COORDINATE_TYPE>
1
5
255

> <PUBCHEM_BONDANNOTATIONS>
13  15  8
2  15  8
2  9  8
4  11  5
5  19  6
6  20  6
8  13  8
8  9  8

$$$$
